V -t * -v 1.0a5 -a 0
W -t * -x 80 -y 25
A -t * -n 1 -p 0 -o 0x7fffffff -c 30 -a 1
A -t * -h 1 -m 1073741823 -s 0
c -t * -i 0 -n red
c -t * -i 1 -n blue
c -t * -i 2 -n purple
c -t * -i 3 -n orange
c -t * -i 4 -n green
c -t * -i 5 -n brown
c -t * -i 6 -n BlueViolet
c -t * -i 7 -n aqua
c -t * -i 8 -n cyan
c -t * -i 10 -n grey
c -t * -i 9 -n azure
c -t * -i 11 -n snow
n -t * -a 4 -s 4 -S UP -v circle -c black -i black -x 80 -y 0
n -t * -a 0 -s 0 -S UP -v circle -c black -i black -x 0 -y 0
n -t * -a 1 -s 1 -S UP -v circle -c black -i black -x 20 -y 25
n -t * -a 2 -s 2 -S UP -v circle -c black -i black -x 40 -y 0
n -t * -a 3 -s 3 -S UP -v circle -c black -i black -x 60 -y 25
X -t * -n 5 -r 0.5Mb -D 40ms -o left
L -t * -s 5 -d 0 -o up
L -t * -s 5 -d 1 -o down
L -t * -s 5 -d 2 -o up
L -t * -s 5 -d 3 -o down
L -t * -s 5 -d 4 -o up
h -t 0.1 -s 0 -d 5 -p tcp -e 40 -c 0 -i 0 -a 0 -x {0.0 1.0 0 ------- null}
h -t 0.1 -s 1 -d 5 -p tcp -e 40 -c 1 -i 1 -a 1 -x {1.1 2.0 0 ------- null}
h -t 0.1 -s 2 -d 5 -p tcp -e 40 -c 2 -i 2 -a 2 -x {2.1 3.0 0 ------- null}
+ -t 0.14 -s 0 -d 5 -p tcp -e 40 -c 0 -i 0 -a 0 -x {0.0 1.0 0 ------- null}
- -t 0.14 -s 0 -d 5 -p tcp -e 40 -c 0 -i 0 -a 0 -x {0.0 1.0 0 ------- null}
h -t 0.14 -s 0 -d 5 -p tcp -e 40 -c 0 -i 0 -a 0 -x {0.0 1.0 -1 ------- null}
+ -t 0.14 -s 1 -d 5 -p tcp -e 40 -c 1 -i 1 -a 1 -x {1.1 2.0 0 ------- null}
- -t 0.14 -s 1 -d 5 -p tcp -e 40 -c 1 -i 1 -a 1 -x {1.1 2.0 0 ------- null}
h -t 0.14 -s 1 -d 5 -p tcp -e 40 -c 1 -i 1 -a 1 -x {1.1 2.0 -1 ------- null}
+ -t 0.14 -s 2 -d 5 -p tcp -e 40 -c 2 -i 2 -a 2 -x {2.1 3.0 0 ------- null}
- -t 0.14 -s 2 -d 5 -p tcp -e 40 -c 2 -i 2 -a 2 -x {2.1 3.0 0 ------- null}
h -t 0.14 -s 2 -d 5 -p tcp -e 40 -c 2 -i 2 -a 2 -x {2.1 3.0 -1 ------- null}
d -t 0.140004 -s 4 -d 5 -p tcp -e 40 -c 0 -i 0 -a 0 -x {0.0 1.0 0 ------- null}
d -t 0.140004 -s 3 -d 5 -p tcp -e 40 -c 0 -i 0 -a 0 -x {0.0 1.0 0 ------- null}
d -t 0.140004 -s 2 -d 5 -p tcp -e 40 -c 0 -i 0 -a 0 -x {0.0 1.0 0 ------- null}
d -t 0.140004 -s 4 -d 5 -p tcp -e 40 -c 1 -i 1 -a 1 -x {1.1 2.0 0 ------- null}
d -t 0.140004 -s 3 -d 5 -p tcp -e 40 -c 1 -i 1 -a 1 -x {1.1 2.0 0 ------- null}
d -t 0.140004 -s 0 -d 5 -p tcp -e 40 -c 1 -i 1 -a 1 -x {1.1 2.0 0 ------- null}
d -t 0.140004 -s 4 -d 5 -p tcp -e 40 -c 2 -i 2 -a 2 -x {2.1 3.0 0 ------- null}
d -t 0.140004 -s 1 -d 5 -p tcp -e 40 -c 2 -i 2 -a 2 -x {2.1 3.0 0 ------- null}
d -t 0.140004 -s 0 -d 5 -p tcp -e 40 -c 2 -i 2 -a 2 -x {2.1 3.0 0 ------- null}
r -t 0.180004 -s 5 -d 1 -p tcp -e 40 -c 0 -i 0 -a 0 -x {0.0 1.0 0 ------- null}
h -t 0.180004 -s 1 -d 5 -p ack -e 40 -c 0 -i 3 -a 0 -x {1.0 0.0 0 ------- null}
r -t 0.180004 -s 5 -d 2 -p tcp -e 40 -c 1 -i 1 -a 1 -x {1.1 2.0 0 ------- null}
h -t 0.180004 -s 2 -d 5 -p ack -e 40 -c 1 -i 4 -a 1 -x {2.0 1.1 0 ------- null}
r -t 0.180004 -s 5 -d 3 -p tcp -e 40 -c 2 -i 2 -a 2 -x {2.1 3.0 0 ------- null}
h -t 0.180004 -s 3 -d 5 -p ack -e 40 -c 2 -i 5 -a 2 -x {3.0 2.1 0 ------- null}
+ -t 0.220004 -s 1 -d 5 -p ack -e 40 -c 0 -i 3 -a 0 -x {1.0 0.0 0 ------- null}
- -t 0.220004 -s 1 -d 5 -p ack -e 40 -c 0 -i 3 -a 0 -x {1.0 0.0 0 ------- null}
h -t 0.220004 -s 1 -d 5 -p ack -e 40 -c 0 -i 3 -a 0 -x {1.0 0.0 -1 ------- null}
+ -t 0.220004 -s 2 -d 5 -p ack -e 40 -c 1 -i 4 -a 1 -x {2.0 1.1 0 ------- null}
- -t 0.220004 -s 2 -d 5 -p ack -e 40 -c 1 -i 4 -a 1 -x {2.0 1.1 0 ------- null}
h -t 0.220004 -s 2 -d 5 -p ack -e 40 -c 1 -i 4 -a 1 -x {2.0 1.1 -1 ------- null}
+ -t 0.220004 -s 3 -d 5 -p ack -e 40 -c 2 -i 5 -a 2 -x {3.0 2.1 0 ------- null}
- -t 0.220004 -s 3 -d 5 -p ack -e 40 -c 2 -i 5 -a 2 -x {3.0 2.1 0 ------- null}
h -t 0.220004 -s 3 -d 5 -p ack -e 40 -c 2 -i 5 -a 2 -x {3.0 2.1 -1 ------- null}
d -t 0.220008 -s 4 -d 5 -p ack -e 40 -c 0 -i 3 -a 0 -x {1.0 0.0 0 ------- null}
d -t 0.220008 -s 3 -d 5 -p ack -e 40 -c 0 -i 3 -a 0 -x {1.0 0.0 0 ------- null}
d -t 0.220008 -s 2 -d 5 -p ack -e 40 -c 0 -i 3 -a 0 -x {1.0 0.0 0 ------- null}
d -t 0.220008 -s 4 -d 5 -p ack -e 40 -c 1 -i 4 -a 1 -x {2.0 1.1 0 ------- null}
d -t 0.220008 -s 3 -d 5 -p ack -e 40 -c 1 -i 4 -a 1 -x {2.0 1.1 0 ------- null}
d -t 0.220008 -s 0 -d 5 -p ack -e 40 -c 1 -i 4 -a 1 -x {2.0 1.1 0 ------- null}
d -t 0.220008 -s 4 -d 5 -p ack -e 40 -c 2 -i 5 -a 2 -x {3.0 2.1 0 ------- null}
d -t 0.220008 -s 1 -d 5 -p ack -e 40 -c 2 -i 5 -a 2 -x {3.0 2.1 0 ------- null}
d -t 0.220008 -s 0 -d 5 -p ack -e 40 -c 2 -i 5 -a 2 -x {3.0 2.1 0 ------- null}
r -t 0.260008 -s 5 -d 0 -p ack -e 40 -c 0 -i 3 -a 0 -x {1.0 0.0 0 ------- null}
h -t 0.260008 -s 0 -d 5 -p tcp -e 1040 -c 0 -i 6 -a 0 -x {0.0 1.0 1 ------- null}
h -t 0.260008 -s 0 -d 5 -p tcp -e 1040 -c 0 -i 7 -a 0 -x {0.0 1.0 2 ------- null}
r -t 0.260008 -s 5 -d 1 -p ack -e 40 -c 1 -i 4 -a 1 -x {2.0 1.1 0 ------- null}
h -t 0.260008 -s 1 -d 5 -p tcp -e 1040 -c 1 -i 8 -a 1 -x {1.1 2.0 1 ------- null}
h -t 0.260008 -s 1 -d 5 -p tcp -e 1040 -c 1 -i 9 -a 1 -x {1.1 2.0 2 ------- null}
r -t 0.260008 -s 5 -d 2 -p ack -e 40 -c 2 -i 5 -a 2 -x {3.0 2.1 0 ------- null}
h -t 0.260008 -s 2 -d 5 -p tcp -e 1040 -c 2 -i 10 -a 2 -x {2.1 3.0 1 ------- null}
h -t 0.260008 -s 2 -d 5 -p tcp -e 1040 -c 2 -i 11 -a 2 -x {2.1 3.0 2 ------- null}
+ -t 0.300008 -s 0 -d 5 -p tcp -e 1040 -c 0 -i 6 -a 0 -x {0.0 1.0 1 ------- null}
- -t 0.300008 -s 0 -d 5 -p tcp -e 1040 -c 0 -i 6 -a 0 -x {0.0 1.0 1 ------- null}
h -t 0.300008 -s 0 -d 5 -p tcp -e 1040 -c 0 -i 6 -a 0 -x {0.0 1.0 -1 ------- null}
+ -t 0.300008 -s 0 -d 5 -p tcp -e 1040 -c 0 -i 7 -a 0 -x {0.0 1.0 2 ------- null}
+ -t 0.300008 -s 1 -d 5 -p tcp -e 1040 -c 1 -i 8 -a 1 -x {1.1 2.0 1 ------- null}
- -t 0.300008 -s 1 -d 5 -p tcp -e 1040 -c 1 -i 8 -a 1 -x {1.1 2.0 1 ------- null}
h -t 0.300008 -s 1 -d 5 -p tcp -e 1040 -c 1 -i 8 -a 1 -x {1.1 2.0 -1 ------- null}
+ -t 0.300008 -s 1 -d 5 -p tcp -e 1040 -c 1 -i 9 -a 1 -x {1.1 2.0 2 ------- null}
+ -t 0.300008 -s 2 -d 5 -p tcp -e 1040 -c 2 -i 10 -a 2 -x {2.1 3.0 1 ------- null}
- -t 0.300008 -s 2 -d 5 -p tcp -e 1040 -c 2 -i 10 -a 2 -x {2.1 3.0 1 ------- null}
h -t 0.300008 -s 2 -d 5 -p tcp -e 1040 -c 2 -i 10 -a 2 -x {2.1 3.0 -1 ------- null}
+ -t 0.300008 -s 2 -d 5 -p tcp -e 1040 -c 2 -i 11 -a 2 -x {2.1 3.0 2 ------- null}
d -t 0.300012 -s 4 -d 5 -p tcp -e 1040 -c 0 -i 6 -a 0 -x {0.0 1.0 1 ------- null}
d -t 0.300012 -s 3 -d 5 -p tcp -e 1040 -c 0 -i 6 -a 0 -x {0.0 1.0 1 ------- null}
d -t 0.300012 -s 2 -d 5 -p tcp -e 1040 -c 0 -i 6 -a 0 -x {0.0 1.0 1 ------- null}
d -t 0.300012 -s 4 -d 5 -p tcp -e 1040 -c 1 -i 8 -a 1 -x {1.1 2.0 1 ------- null}
d -t 0.300012 -s 3 -d 5 -p tcp -e 1040 -c 1 -i 8 -a 1 -x {1.1 2.0 1 ------- null}
d -t 0.300012 -s 0 -d 5 -p tcp -e 1040 -c 1 -i 8 -a 1 -x {1.1 2.0 1 ------- null}
d -t 0.300012 -s 4 -d 5 -p tcp -e 1040 -c 2 -i 10 -a 2 -x {2.1 3.0 1 ------- null}
d -t 0.300012 -s 1 -d 5 -p tcp -e 1040 -c 2 -i 10 -a 2 -x {2.1 3.0 1 ------- null}
d -t 0.300012 -s 0 -d 5 -p tcp -e 1040 -c 2 -i 10 -a 2 -x {2.1 3.0 1 ------- null}
- -t 0.304424 -s 0 -d 5 -p tcp -e 1040 -c 0 -i 7 -a 0 -x {0.0 1.0 2 ------- null}
h -t 0.304424 -s 0 -d 5 -p tcp -e 1040 -c 0 -i 7 -a 0 -x {0.0 1.0 -1 ------- null}
- -t 0.304424 -s 1 -d 5 -p tcp -e 1040 -c 1 -i 9 -a 1 -x {1.1 2.0 2 ------- null}
h -t 0.304424 -s 1 -d 5 -p tcp -e 1040 -c 1 -i 9 -a 1 -x {1.1 2.0 -1 ------- null}
- -t 0.304424 -s 2 -d 5 -p tcp -e 1040 -c 2 -i 11 -a 2 -x {2.1 3.0 2 ------- null}
h -t 0.304424 -s 2 -d 5 -p tcp -e 1040 -c 2 -i 11 -a 2 -x {2.1 3.0 -1 ------- null}
d -t 0.304428 -s 4 -d 5 -p tcp -e 1040 -c 0 -i 7 -a 0 -x {0.0 1.0 2 ------- null}
d -t 0.304428 -s 3 -d 5 -p tcp -e 1040 -c 0 -i 7 -a 0 -x {0.0 1.0 2 ------- null}
d -t 0.304428 -s 2 -d 5 -p tcp -e 1040 -c 0 -i 7 -a 0 -x {0.0 1.0 2 ------- null}
d -t 0.304428 -s 4 -d 5 -p tcp -e 1040 -c 1 -i 9 -a 1 -x {1.1 2.0 2 ------- null}
d -t 0.304428 -s 3 -d 5 -p tcp -e 1040 -c 1 -i 9 -a 1 -x {1.1 2.0 2 ------- null}
d -t 0.304428 -s 0 -d 5 -p tcp -e 1040 -c 1 -i 9 -a 1 -x {1.1 2.0 2 ------- null}
d -t 0.304428 -s 4 -d 5 -p tcp -e 1040 -c 2 -i 11 -a 2 -x {2.1 3.0 2 ------- null}
d -t 0.304428 -s 1 -d 5 -p tcp -e 1040 -c 2 -i 11 -a 2 -x {2.1 3.0 2 ------- null}
d -t 0.304428 -s 0 -d 5 -p tcp -e 1040 -c 2 -i 11 -a 2 -x {2.1 3.0 2 ------- null}
r -t 0.340012 -s 5 -d 1 -p tcp -e 1040 -c 0 -i 6 -a 0 -x {0.0 1.0 1 ------- null}
r -t 0.340012 -s 5 -d 2 -p tcp -e 1040 -c 1 -i 8 -a 1 -x {1.1 2.0 1 ------- null}
r -t 0.340012 -s 5 -d 3 -p tcp -e 1040 -c 2 -i 10 -a 2 -x {2.1 3.0 1 ------- null}
r -t 0.344428 -s 5 -d 1 -p tcp -e 1040 -c 0 -i 7 -a 0 -x {0.0 1.0 2 ------- null}
h -t 0.344428 -s 1 -d 5 -p ack -e 40 -c 0 -i 12 -a 0 -x {1.0 0.0 2 ------- null}
r -t 0.344428 -s 5 -d 2 -p tcp -e 1040 -c 1 -i 9 -a 1 -x {1.1 2.0 2 ------- null}
h -t 0.344428 -s 2 -d 5 -p ack -e 40 -c 1 -i 13 -a 1 -x {2.0 1.1 2 ------- null}
r -t 0.344428 -s 5 -d 3 -p tcp -e 1040 -c 2 -i 11 -a 2 -x {2.1 3.0 2 ------- null}
h -t 0.344428 -s 3 -d 5 -p ack -e 40 -c 2 -i 14 -a 2 -x {3.0 2.1 2 ------- null}
+ -t 0.384428 -s 1 -d 5 -p ack -e 40 -c 0 -i 12 -a 0 -x {1.0 0.0 2 ------- null}
- -t 0.384428 -s 1 -d 5 -p ack -e 40 -c 0 -i 12 -a 0 -x {1.0 0.0 2 ------- null}
h -t 0.384428 -s 1 -d 5 -p ack -e 40 -c 0 -i 12 -a 0 -x {1.0 0.0 -1 ------- null}
+ -t 0.384428 -s 2 -d 5 -p ack -e 40 -c 1 -i 13 -a 1 -x {2.0 1.1 2 ------- null}
- -t 0.384428 -s 2 -d 5 -p ack -e 40 -c 1 -i 13 -a 1 -x {2.0 1.1 2 ------- null}
h -t 0.384428 -s 2 -d 5 -p ack -e 40 -c 1 -i 13 -a 1 -x {2.0 1.1 -1 ------- null}
+ -t 0.384428 -s 3 -d 5 -p ack -e 40 -c 2 -i 14 -a 2 -x {3.0 2.1 2 ------- null}
- -t 0.384428 -s 3 -d 5 -p ack -e 40 -c 2 -i 14 -a 2 -x {3.0 2.1 2 ------- null}
h -t 0.384428 -s 3 -d 5 -p ack -e 40 -c 2 -i 14 -a 2 -x {3.0 2.1 -1 ------- null}
d -t 0.384432 -s 4 -d 5 -p ack -e 40 -c 0 -i 12 -a 0 -x {1.0 0.0 2 ------- null}
d -t 0.384432 -s 3 -d 5 -p ack -e 40 -c 0 -i 12 -a 0 -x {1.0 0.0 2 ------- null}
d -t 0.384432 -s 2 -d 5 -p ack -e 40 -c 0 -i 12 -a 0 -x {1.0 0.0 2 ------- null}
d -t 0.384432 -s 4 -d 5 -p ack -e 40 -c 1 -i 13 -a 1 -x {2.0 1.1 2 ------- null}
d -t 0.384432 -s 3 -d 5 -p ack -e 40 -c 1 -i 13 -a 1 -x {2.0 1.1 2 ------- null}
d -t 0.384432 -s 0 -d 5 -p ack -e 40 -c 1 -i 13 -a 1 -x {2.0 1.1 2 ------- null}
d -t 0.384432 -s 4 -d 5 -p ack -e 40 -c 2 -i 14 -a 2 -x {3.0 2.1 2 ------- null}
d -t 0.384432 -s 1 -d 5 -p ack -e 40 -c 2 -i 14 -a 2 -x {3.0 2.1 2 ------- null}
d -t 0.384432 -s 0 -d 5 -p ack -e 40 -c 2 -i 14 -a 2 -x {3.0 2.1 2 ------- null}
r -t 0.424432 -s 5 -d 0 -p ack -e 40 -c 0 -i 12 -a 0 -x {1.0 0.0 2 ------- null}
h -t 0.424432 -s 0 -d 5 -p tcp -e 1040 -c 0 -i 15 -a 0 -x {0.0 1.0 3 ------- null}
h -t 0.424432 -s 0 -d 5 -p tcp -e 1040 -c 0 -i 16 -a 0 -x {0.0 1.0 4 ------- null}
h -t 0.424432 -s 0 -d 5 -p tcp -e 1040 -c 0 -i 17 -a 0 -x {0.0 1.0 5 ------- null}
r -t 0.424432 -s 5 -d 1 -p ack -e 40 -c 1 -i 13 -a 1 -x {2.0 1.1 2 ------- null}
h -t 0.424432 -s 1 -d 5 -p tcp -e 1040 -c 1 -i 18 -a 1 -x {1.1 2.0 3 ------- null}
h -t 0.424432 -s 1 -d 5 -p tcp -e 1040 -c 1 -i 19 -a 1 -x {1.1 2.0 4 ------- null}
h -t 0.424432 -s 1 -d 5 -p tcp -e 1040 -c 1 -i 20 -a 1 -x {1.1 2.0 5 ------- null}
r -t 0.424432 -s 5 -d 2 -p ack -e 40 -c 2 -i 14 -a 2 -x {3.0 2.1 2 ------- null}
h -t 0.424432 -s 2 -d 5 -p tcp -e 1040 -c 2 -i 21 -a 2 -x {2.1 3.0 3 ------- null}
h -t 0.424432 -s 2 -d 5 -p tcp -e 1040 -c 2 -i 22 -a 2 -x {2.1 3.0 4 ------- null}
h -t 0.424432 -s 2 -d 5 -p tcp -e 1040 -c 2 -i 23 -a 2 -x {2.1 3.0 5 ------- null}
+ -t 0.464432 -s 0 -d 5 -p tcp -e 1040 -c 0 -i 15 -a 0 -x {0.0 1.0 3 ------- null}
- -t 0.464432 -s 0 -d 5 -p tcp -e 1040 -c 0 -i 15 -a 0 -x {0.0 1.0 3 ------- null}
h -t 0.464432 -s 0 -d 5 -p tcp -e 1040 -c 0 -i 15 -a 0 -x {0.0 1.0 -1 ------- null}
+ -t 0.464432 -s 0 -d 5 -p tcp -e 1040 -c 0 -i 16 -a 0 -x {0.0 1.0 4 ------- null}
+ -t 0.464432 -s 0 -d 5 -p tcp -e 1040 -c 0 -i 17 -a 0 -x {0.0 1.0 5 ------- null}
+ -t 0.464432 -s 1 -d 5 -p tcp -e 1040 -c 1 -i 18 -a 1 -x {1.1 2.0 3 ------- null}
- -t 0.464432 -s 1 -d 5 -p tcp -e 1040 -c 1 -i 18 -a 1 -x {1.1 2.0 3 ------- null}
h -t 0.464432 -s 1 -d 5 -p tcp -e 1040 -c 1 -i 18 -a 1 -x {1.1 2.0 -1 ------- null}
+ -t 0.464432 -s 1 -d 5 -p tcp -e 1040 -c 1 -i 19 -a 1 -x {1.1 2.0 4 ------- null}
+ -t 0.464432 -s 1 -d 5 -p tcp -e 1040 -c 1 -i 20 -a 1 -x {1.1 2.0 5 ------- null}
+ -t 0.464432 -s 2 -d 5 -p tcp -e 1040 -c 2 -i 21 -a 2 -x {2.1 3.0 3 ------- null}
- -t 0.464432 -s 2 -d 5 -p tcp -e 1040 -c 2 -i 21 -a 2 -x {2.1 3.0 3 ------- null}
h -t 0.464432 -s 2 -d 5 -p tcp -e 1040 -c 2 -i 21 -a 2 -x {2.1 3.0 -1 ------- null}
+ -t 0.464432 -s 2 -d 5 -p tcp -e 1040 -c 2 -i 22 -a 2 -x {2.1 3.0 4 ------- null}
+ -t 0.464432 -s 2 -d 5 -p tcp -e 1040 -c 2 -i 23 -a 2 -x {2.1 3.0 5 ------- null}
d -t 0.464436 -s 4 -d 5 -p tcp -e 1040 -c 0 -i 15 -a 0 -x {0.0 1.0 3 ------- null}
d -t 0.464436 -s 3 -d 5 -p tcp -e 1040 -c 0 -i 15 -a 0 -x {0.0 1.0 3 ------- null}
d -t 0.464436 -s 2 -d 5 -p tcp -e 1040 -c 0 -i 15 -a 0 -x {0.0 1.0 3 ------- null}
d -t 0.464436 -s 4 -d 5 -p tcp -e 1040 -c 1 -i 18 -a 1 -x {1.1 2.0 3 ------- null}
d -t 0.464436 -s 3 -d 5 -p tcp -e 1040 -c 1 -i 18 -a 1 -x {1.1 2.0 3 ------- null}
d -t 0.464436 -s 0 -d 5 -p tcp -e 1040 -c 1 -i 18 -a 1 -x {1.1 2.0 3 ------- null}
d -t 0.464436 -s 4 -d 5 -p tcp -e 1040 -c 2 -i 21 -a 2 -x {2.1 3.0 3 ------- null}
d -t 0.464436 -s 1 -d 5 -p tcp -e 1040 -c 2 -i 21 -a 2 -x {2.1 3.0 3 ------- null}
d -t 0.464436 -s 0 -d 5 -p tcp -e 1040 -c 2 -i 21 -a 2 -x {2.1 3.0 3 ------- null}
- -t 0.468848 -s 0 -d 5 -p tcp -e 1040 -c 0 -i 16 -a 0 -x {0.0 1.0 4 ------- null}
h -t 0.468848 -s 0 -d 5 -p tcp -e 1040 -c 0 -i 16 -a 0 -x {0.0 1.0 -1 ------- null}
- -t 0.468848 -s 1 -d 5 -p tcp -e 1040 -c 1 -i 19 -a 1 -x {1.1 2.0 4 ------- null}
h -t 0.468848 -s 1 -d 5 -p tcp -e 1040 -c 1 -i 19 -a 1 -x {1.1 2.0 -1 ------- null}
- -t 0.468848 -s 2 -d 5 -p tcp -e 1040 -c 2 -i 22 -a 2 -x {2.1 3.0 4 ------- null}
h -t 0.468848 -s 2 -d 5 -p tcp -e 1040 -c 2 -i 22 -a 2 -x {2.1 3.0 -1 ------- null}
d -t 0.468852 -s 4 -d 5 -p tcp -e 1040 -c 0 -i 16 -a 0 -x {0.0 1.0 4 ------- null}
d -t 0.468852 -s 3 -d 5 -p tcp -e 1040 -c 0 -i 16 -a 0 -x {0.0 1.0 4 ------- null}
d -t 0.468852 -s 2 -d 5 -p tcp -e 1040 -c 0 -i 16 -a 0 -x {0.0 1.0 4 ------- null}
d -t 0.468852 -s 4 -d 5 -p tcp -e 1040 -c 1 -i 19 -a 1 -x {1.1 2.0 4 ------- null}
d -t 0.468852 -s 3 -d 5 -p tcp -e 1040 -c 1 -i 19 -a 1 -x {1.1 2.0 4 ------- null}
d -t 0.468852 -s 0 -d 5 -p tcp -e 1040 -c 1 -i 19 -a 1 -x {1.1 2.0 4 ------- null}
d -t 0.468852 -s 4 -d 5 -p tcp -e 1040 -c 2 -i 22 -a 2 -x {2.1 3.0 4 ------- null}
d -t 0.468852 -s 1 -d 5 -p tcp -e 1040 -c 2 -i 22 -a 2 -x {2.1 3.0 4 ------- null}
d -t 0.468852 -s 0 -d 5 -p tcp -e 1040 -c 2 -i 22 -a 2 -x {2.1 3.0 4 ------- null}
- -t 0.473264 -s 0 -d 5 -p tcp -e 1040 -c 0 -i 17 -a 0 -x {0.0 1.0 5 ------- null}
h -t 0.473264 -s 0 -d 5 -p tcp -e 1040 -c 0 -i 17 -a 0 -x {0.0 1.0 -1 ------- null}
- -t 0.473264 -s 1 -d 5 -p tcp -e 1040 -c 1 -i 20 -a 1 -x {1.1 2.0 5 ------- null}
h -t 0.473264 -s 1 -d 5 -p tcp -e 1040 -c 1 -i 20 -a 1 -x {1.1 2.0 -1 ------- null}
- -t 0.473264 -s 2 -d 5 -p tcp -e 1040 -c 2 -i 23 -a 2 -x {2.1 3.0 5 ------- null}
h -t 0.473264 -s 2 -d 5 -p tcp -e 1040 -c 2 -i 23 -a 2 -x {2.1 3.0 -1 ------- null}
d -t 0.473268 -s 4 -d 5 -p tcp -e 1040 -c 0 -i 17 -a 0 -x {0.0 1.0 5 ------- null}
d -t 0.473268 -s 3 -d 5 -p tcp -e 1040 -c 0 -i 17 -a 0 -x {0.0 1.0 5 ------- null}
d -t 0.473268 -s 2 -d 5 -p tcp -e 1040 -c 0 -i 17 -a 0 -x {0.0 1.0 5 ------- null}
d -t 0.473268 -s 4 -d 5 -p tcp -e 1040 -c 1 -i 20 -a 1 -x {1.1 2.0 5 ------- null}
d -t 0.473268 -s 3 -d 5 -p tcp -e 1040 -c 1 -i 20 -a 1 -x {1.1 2.0 5 ------- null}
d -t 0.473268 -s 0 -d 5 -p tcp -e 1040 -c 1 -i 20 -a 1 -x {1.1 2.0 5 ------- null}
d -t 0.473268 -s 4 -d 5 -p tcp -e 1040 -c 2 -i 23 -a 2 -x {2.1 3.0 5 ------- null}
d -t 0.473268 -s 1 -d 5 -p tcp -e 1040 -c 2 -i 23 -a 2 -x {2.1 3.0 5 ------- null}
d -t 0.473268 -s 0 -d 5 -p tcp -e 1040 -c 2 -i 23 -a 2 -x {2.1 3.0 5 ------- null}
r -t 0.504436 -s 5 -d 1 -p tcp -e 1040 -c 0 -i 15 -a 0 -x {0.0 1.0 3 ------- null}
r -t 0.504436 -s 5 -d 2 -p tcp -e 1040 -c 1 -i 18 -a 1 -x {1.1 2.0 3 ------- null}
r -t 0.504436 -s 5 -d 3 -p tcp -e 1040 -c 2 -i 21 -a 2 -x {2.1 3.0 3 ------- null}
r -t 0.508852 -s 5 -d 1 -p tcp -e 1040 -c 0 -i 16 -a 0 -x {0.0 1.0 4 ------- null}
h -t 0.508852 -s 1 -d 5 -p ack -e 40 -c 0 -i 24 -a 0 -x {1.0 0.0 4 ------- null}
r -t 0.508852 -s 5 -d 2 -p tcp -e 1040 -c 1 -i 19 -a 1 -x {1.1 2.0 4 ------- null}
h -t 0.508852 -s 2 -d 5 -p ack -e 40 -c 1 -i 25 -a 1 -x {2.0 1.1 4 ------- null}
r -t 0.508852 -s 5 -d 3 -p tcp -e 1040 -c 2 -i 22 -a 2 -x {2.1 3.0 4 ------- null}
h -t 0.508852 -s 3 -d 5 -p ack -e 40 -c 2 -i 26 -a 2 -x {3.0 2.1 4 ------- null}
r -t 0.513268 -s 5 -d 1 -p tcp -e 1040 -c 0 -i 17 -a 0 -x {0.0 1.0 5 ------- null}
r -t 0.513268 -s 5 -d 2 -p tcp -e 1040 -c 1 -i 20 -a 1 -x {1.1 2.0 5 ------- null}
r -t 0.513268 -s 5 -d 3 -p tcp -e 1040 -c 2 -i 23 -a 2 -x {2.1 3.0 5 ------- null}
+ -t 0.548852 -s 1 -d 5 -p ack -e 40 -c 0 -i 24 -a 0 -x {1.0 0.0 4 ------- null}
- -t 0.548852 -s 1 -d 5 -p ack -e 40 -c 0 -i 24 -a 0 -x {1.0 0.0 4 ------- null}
h -t 0.548852 -s 1 -d 5 -p ack -e 40 -c 0 -i 24 -a 0 -x {1.0 0.0 -1 ------- null}
+ -t 0.548852 -s 2 -d 5 -p ack -e 40 -c 1 -i 25 -a 1 -x {2.0 1.1 4 ------- null}
- -t 0.548852 -s 2 -d 5 -p ack -e 40 -c 1 -i 25 -a 1 -x {2.0 1.1 4 ------- null}
h -t 0.548852 -s 2 -d 5 -p ack -e 40 -c 1 -i 25 -a 1 -x {2.0 1.1 -1 ------- null}
+ -t 0.548852 -s 3 -d 5 -p ack -e 40 -c 2 -i 26 -a 2 -x {3.0 2.1 4 ------- null}
- -t 0.548852 -s 3 -d 5 -p ack -e 40 -c 2 -i 26 -a 2 -x {3.0 2.1 4 ------- null}
h -t 0.548852 -s 3 -d 5 -p ack -e 40 -c 2 -i 26 -a 2 -x {3.0 2.1 -1 ------- null}
d -t 0.548856 -s 4 -d 5 -p ack -e 40 -c 0 -i 24 -a 0 -x {1.0 0.0 4 ------- null}
d -t 0.548856 -s 3 -d 5 -p ack -e 40 -c 0 -i 24 -a 0 -x {1.0 0.0 4 ------- null}
d -t 0.548856 -s 2 -d 5 -p ack -e 40 -c 0 -i 24 -a 0 -x {1.0 0.0 4 ------- null}
d -t 0.548856 -s 4 -d 5 -p ack -e 40 -c 1 -i 25 -a 1 -x {2.0 1.1 4 ------- null}
d -t 0.548856 -s 3 -d 5 -p ack -e 40 -c 1 -i 25 -a 1 -x {2.0 1.1 4 ------- null}
d -t 0.548856 -s 0 -d 5 -p ack -e 40 -c 1 -i 25 -a 1 -x {2.0 1.1 4 ------- null}
d -t 0.548856 -s 4 -d 5 -p ack -e 40 -c 2 -i 26 -a 2 -x {3.0 2.1 4 ------- null}
d -t 0.548856 -s 1 -d 5 -p ack -e 40 -c 2 -i 26 -a 2 -x {3.0 2.1 4 ------- null}
d -t 0.548856 -s 0 -d 5 -p ack -e 40 -c 2 -i 26 -a 2 -x {3.0 2.1 4 ------- null}
r -t 0.588856 -s 5 -d 0 -p ack -e 40 -c 0 -i 24 -a 0 -x {1.0 0.0 4 ------- null}
h -t 0.588856 -s 0 -d 5 -p tcp -e 1040 -c 0 -i 27 -a 0 -x {0.0 1.0 6 ------- null}
h -t 0.588856 -s 0 -d 5 -p tcp -e 1040 -c 0 -i 28 -a 0 -x {0.0 1.0 7 ------- null}
h -t 0.588856 -s 0 -d 5 -p tcp -e 1040 -c 0 -i 29 -a 0 -x {0.0 1.0 8 ------- null}
r -t 0.588856 -s 5 -d 1 -p ack -e 40 -c 1 -i 25 -a 1 -x {2.0 1.1 4 ------- null}
h -t 0.588856 -s 1 -d 5 -p tcp -e 1040 -c 1 -i 30 -a 1 -x {1.1 2.0 6 ------- null}
h -t 0.588856 -s 1 -d 5 -p tcp -e 1040 -c 1 -i 31 -a 1 -x {1.1 2.0 7 ------- null}
h -t 0.588856 -s 1 -d 5 -p tcp -e 1040 -c 1 -i 32 -a 1 -x {1.1 2.0 8 ------- null}
r -t 0.588856 -s 5 -d 2 -p ack -e 40 -c 2 -i 26 -a 2 -x {3.0 2.1 4 ------- null}
h -t 0.588856 -s 2 -d 5 -p tcp -e 1040 -c 2 -i 33 -a 2 -x {2.1 3.0 6 ------- null}
h -t 0.588856 -s 2 -d 5 -p tcp -e 1040 -c 2 -i 34 -a 2 -x {2.1 3.0 7 ------- null}
h -t 0.588856 -s 2 -d 5 -p tcp -e 1040 -c 2 -i 35 -a 2 -x {2.1 3.0 8 ------- null}
h -t 0.613268 -s 1 -d 5 -p ack -e 40 -c 0 -i 36 -a 0 -x {1.0 0.0 5 ------- null}
h -t 0.613268 -s 2 -d 5 -p ack -e 40 -c 1 -i 37 -a 1 -x {2.0 1.1 5 ------- null}
h -t 0.613268 -s 3 -d 5 -p ack -e 40 -c 2 -i 38 -a 2 -x {3.0 2.1 5 ------- null}
+ -t 0.628856 -s 0 -d 5 -p tcp -e 1040 -c 0 -i 27 -a 0 -x {0.0 1.0 6 ------- null}
- -t 0.628856 -s 0 -d 5 -p tcp -e 1040 -c 0 -i 27 -a 0 -x {0.0 1.0 6 ------- null}
h -t 0.628856 -s 0 -d 5 -p tcp -e 1040 -c 0 -i 27 -a 0 -x {0.0 1.0 -1 ------- null}
+ -t 0.628856 -s 0 -d 5 -p tcp -e 1040 -c 0 -i 28 -a 0 -x {0.0 1.0 7 ------- null}
+ -t 0.628856 -s 0 -d 5 -p tcp -e 1040 -c 0 -i 29 -a 0 -x {0.0 1.0 8 ------- null}
+ -t 0.628856 -s 1 -d 5 -p tcp -e 1040 -c 1 -i 30 -a 1 -x {1.1 2.0 6 ------- null}
- -t 0.628856 -s 1 -d 5 -p tcp -e 1040 -c 1 -i 30 -a 1 -x {1.1 2.0 6 ------- null}
h -t 0.628856 -s 1 -d 5 -p tcp -e 1040 -c 1 -i 30 -a 1 -x {1.1 2.0 -1 ------- null}
+ -t 0.628856 -s 1 -d 5 -p tcp -e 1040 -c 1 -i 31 -a 1 -x {1.1 2.0 7 ------- null}
+ -t 0.628856 -s 1 -d 5 -p tcp -e 1040 -c 1 -i 32 -a 1 -x {1.1 2.0 8 ------- null}
+ -t 0.628856 -s 2 -d 5 -p tcp -e 1040 -c 2 -i 33 -a 2 -x {2.1 3.0 6 ------- null}
- -t 0.628856 -s 2 -d 5 -p tcp -e 1040 -c 2 -i 33 -a 2 -x {2.1 3.0 6 ------- null}
h -t 0.628856 -s 2 -d 5 -p tcp -e 1040 -c 2 -i 33 -a 2 -x {2.1 3.0 -1 ------- null}
+ -t 0.628856 -s 2 -d 5 -p tcp -e 1040 -c 2 -i 34 -a 2 -x {2.1 3.0 7 ------- null}
+ -t 0.628856 -s 2 -d 5 -p tcp -e 1040 -c 2 -i 35 -a 2 -x {2.1 3.0 8 ------- null}
d -t 0.62886 -s 4 -d 5 -p tcp -e 1040 -c 0 -i 27 -a 0 -x {0.0 1.0 6 ------- null}
d -t 0.62886 -s 3 -d 5 -p tcp -e 1040 -c 0 -i 27 -a 0 -x {0.0 1.0 6 ------- null}
d -t 0.62886 -s 2 -d 5 -p tcp -e 1040 -c 0 -i 27 -a 0 -x {0.0 1.0 6 ------- null}
d -t 0.62886 -s 4 -d 5 -p tcp -e 1040 -c 1 -i 30 -a 1 -x {1.1 2.0 6 ------- null}
d -t 0.62886 -s 3 -d 5 -p tcp -e 1040 -c 1 -i 30 -a 1 -x {1.1 2.0 6 ------- null}
d -t 0.62886 -s 0 -d 5 -p tcp -e 1040 -c 1 -i 30 -a 1 -x {1.1 2.0 6 ------- null}
d -t 0.62886 -s 4 -d 5 -p tcp -e 1040 -c 2 -i 33 -a 2 -x {2.1 3.0 6 ------- null}
d -t 0.62886 -s 1 -d 5 -p tcp -e 1040 -c 2 -i 33 -a 2 -x {2.1 3.0 6 ------- null}
d -t 0.62886 -s 0 -d 5 -p tcp -e 1040 -c 2 -i 33 -a 2 -x {2.1 3.0 6 ------- null}
- -t 0.633272 -s 0 -d 5 -p tcp -e 1040 -c 0 -i 28 -a 0 -x {0.0 1.0 7 ------- null}
h -t 0.633272 -s 0 -d 5 -p tcp -e 1040 -c 0 -i 28 -a 0 -x {0.0 1.0 -1 ------- null}
- -t 0.633272 -s 1 -d 5 -p tcp -e 1040 -c 1 -i 31 -a 1 -x {1.1 2.0 7 ------- null}
h -t 0.633272 -s 1 -d 5 -p tcp -e 1040 -c 1 -i 31 -a 1 -x {1.1 2.0 -1 ------- null}
- -t 0.633272 -s 2 -d 5 -p tcp -e 1040 -c 2 -i 34 -a 2 -x {2.1 3.0 7 ------- null}
h -t 0.633272 -s 2 -d 5 -p tcp -e 1040 -c 2 -i 34 -a 2 -x {2.1 3.0 -1 ------- null}
d -t 0.633276 -s 4 -d 5 -p tcp -e 1040 -c 0 -i 28 -a 0 -x {0.0 1.0 7 ------- null}
d -t 0.633276 -s 3 -d 5 -p tcp -e 1040 -c 0 -i 28 -a 0 -x {0.0 1.0 7 ------- null}
d -t 0.633276 -s 2 -d 5 -p tcp -e 1040 -c 0 -i 28 -a 0 -x {0.0 1.0 7 ------- null}
d -t 0.633276 -s 4 -d 5 -p tcp -e 1040 -c 1 -i 31 -a 1 -x {1.1 2.0 7 ------- null}
d -t 0.633276 -s 3 -d 5 -p tcp -e 1040 -c 1 -i 31 -a 1 -x {1.1 2.0 7 ------- null}
d -t 0.633276 -s 0 -d 5 -p tcp -e 1040 -c 1 -i 31 -a 1 -x {1.1 2.0 7 ------- null}
d -t 0.633276 -s 4 -d 5 -p tcp -e 1040 -c 2 -i 34 -a 2 -x {2.1 3.0 7 ------- null}
d -t 0.633276 -s 1 -d 5 -p tcp -e 1040 -c 2 -i 34 -a 2 -x {2.1 3.0 7 ------- null}
d -t 0.633276 -s 0 -d 5 -p tcp -e 1040 -c 2 -i 34 -a 2 -x {2.1 3.0 7 ------- null}
- -t 0.637688 -s 0 -d 5 -p tcp -e 1040 -c 0 -i 29 -a 0 -x {0.0 1.0 8 ------- null}
h -t 0.637688 -s 0 -d 5 -p tcp -e 1040 -c 0 -i 29 -a 0 -x {0.0 1.0 -1 ------- null}
- -t 0.637688 -s 1 -d 5 -p tcp -e 1040 -c 1 -i 32 -a 1 -x {1.1 2.0 8 ------- null}
h -t 0.637688 -s 1 -d 5 -p tcp -e 1040 -c 1 -i 32 -a 1 -x {1.1 2.0 -1 ------- null}
- -t 0.637688 -s 2 -d 5 -p tcp -e 1040 -c 2 -i 35 -a 2 -x {2.1 3.0 8 ------- null}
h -t 0.637688 -s 2 -d 5 -p tcp -e 1040 -c 2 -i 35 -a 2 -x {2.1 3.0 -1 ------- null}
d -t 0.637692 -s 4 -d 5 -p tcp -e 1040 -c 0 -i 29 -a 0 -x {0.0 1.0 8 ------- null}
d -t 0.637692 -s 3 -d 5 -p tcp -e 1040 -c 0 -i 29 -a 0 -x {0.0 1.0 8 ------- null}
d -t 0.637692 -s 2 -d 5 -p tcp -e 1040 -c 0 -i 29 -a 0 -x {0.0 1.0 8 ------- null}
d -t 0.637692 -s 4 -d 5 -p tcp -e 1040 -c 1 -i 32 -a 1 -x {1.1 2.0 8 ------- null}
d -t 0.637692 -s 3 -d 5 -p tcp -e 1040 -c 1 -i 32 -a 1 -x {1.1 2.0 8 ------- null}
d -t 0.637692 -s 0 -d 5 -p tcp -e 1040 -c 1 -i 32 -a 1 -x {1.1 2.0 8 ------- null}
d -t 0.637692 -s 4 -d 5 -p tcp -e 1040 -c 2 -i 35 -a 2 -x {2.1 3.0 8 ------- null}
d -t 0.637692 -s 1 -d 5 -p tcp -e 1040 -c 2 -i 35 -a 2 -x {2.1 3.0 8 ------- null}
d -t 0.637692 -s 0 -d 5 -p tcp -e 1040 -c 2 -i 35 -a 2 -x {2.1 3.0 8 ------- null}
+ -t 0.653268 -s 1 -d 5 -p ack -e 40 -c 0 -i 36 -a 0 -x {1.0 0.0 5 ------- null}
- -t 0.653268 -s 1 -d 5 -p ack -e 40 -c 0 -i 36 -a 0 -x {1.0 0.0 5 ------- null}
h -t 0.653268 -s 1 -d 5 -p ack -e 40 -c 0 -i 36 -a 0 -x {1.0 0.0 -1 ------- null}
+ -t 0.653268 -s 2 -d 5 -p ack -e 40 -c 1 -i 37 -a 1 -x {2.0 1.1 5 ------- null}
- -t 0.653268 -s 2 -d 5 -p ack -e 40 -c 1 -i 37 -a 1 -x {2.0 1.1 5 ------- null}
h -t 0.653268 -s 2 -d 5 -p ack -e 40 -c 1 -i 37 -a 1 -x {2.0 1.1 -1 ------- null}
+ -t 0.653268 -s 3 -d 5 -p ack -e 40 -c 2 -i 38 -a 2 -x {3.0 2.1 5 ------- null}
- -t 0.653268 -s 3 -d 5 -p ack -e 40 -c 2 -i 38 -a 2 -x {3.0 2.1 5 ------- null}
h -t 0.653268 -s 3 -d 5 -p ack -e 40 -c 2 -i 38 -a 2 -x {3.0 2.1 -1 ------- null}
d -t 0.653272 -s 4 -d 5 -p ack -e 40 -c 0 -i 36 -a 0 -x {1.0 0.0 5 ------- null}
d -t 0.653272 -s 3 -d 5 -p ack -e 40 -c 0 -i 36 -a 0 -x {1.0 0.0 5 ------- null}
d -t 0.653272 -s 2 -d 5 -p ack -e 40 -c 0 -i 36 -a 0 -x {1.0 0.0 5 ------- null}
d -t 0.653272 -s 4 -d 5 -p ack -e 40 -c 1 -i 37 -a 1 -x {2.0 1.1 5 ------- null}
d -t 0.653272 -s 3 -d 5 -p ack -e 40 -c 1 -i 37 -a 1 -x {2.0 1.1 5 ------- null}
d -t 0.653272 -s 0 -d 5 -p ack -e 40 -c 1 -i 37 -a 1 -x {2.0 1.1 5 ------- null}
d -t 0.653272 -s 4 -d 5 -p ack -e 40 -c 2 -i 38 -a 2 -x {3.0 2.1 5 ------- null}
d -t 0.653272 -s 1 -d 5 -p ack -e 40 -c 2 -i 38 -a 2 -x {3.0 2.1 5 ------- null}
d -t 0.653272 -s 0 -d 5 -p ack -e 40 -c 2 -i 38 -a 2 -x {3.0 2.1 5 ------- null}
r -t 0.66886 -s 5 -d 1 -p tcp -e 1040 -c 0 -i 27 -a 0 -x {0.0 1.0 6 ------- null}
r -t 0.66886 -s 5 -d 2 -p tcp -e 1040 -c 1 -i 30 -a 1 -x {1.1 2.0 6 ------- null}
r -t 0.66886 -s 5 -d 3 -p tcp -e 1040 -c 2 -i 33 -a 2 -x {2.1 3.0 6 ------- null}
r -t 0.673276 -s 5 -d 1 -p tcp -e 1040 -c 0 -i 28 -a 0 -x {0.0 1.0 7 ------- null}
h -t 0.673276 -s 1 -d 5 -p ack -e 40 -c 0 -i 39 -a 0 -x {1.0 0.0 7 ------- null}
r -t 0.673276 -s 5 -d 2 -p tcp -e 1040 -c 1 -i 31 -a 1 -x {1.1 2.0 7 ------- null}
h -t 0.673276 -s 2 -d 5 -p ack -e 40 -c 1 -i 40 -a 1 -x {2.0 1.1 7 ------- null}
r -t 0.673276 -s 5 -d 3 -p tcp -e 1040 -c 2 -i 34 -a 2 -x {2.1 3.0 7 ------- null}
h -t 0.673276 -s 3 -d 5 -p ack -e 40 -c 2 -i 41 -a 2 -x {3.0 2.1 7 ------- null}
r -t 0.677692 -s 5 -d 1 -p tcp -e 1040 -c 0 -i 29 -a 0 -x {0.0 1.0 8 ------- null}
r -t 0.677692 -s 5 -d 2 -p tcp -e 1040 -c 1 -i 32 -a 1 -x {1.1 2.0 8 ------- null}
r -t 0.677692 -s 5 -d 3 -p tcp -e 1040 -c 2 -i 35 -a 2 -x {2.1 3.0 8 ------- null}
r -t 0.693272 -s 5 -d 0 -p ack -e 40 -c 0 -i 36 -a 0 -x {1.0 0.0 5 ------- null}
h -t 0.693272 -s 0 -d 5 -p tcp -e 1040 -c 0 -i 42 -a 0 -x {0.0 1.0 9 ------- null}
h -t 0.693272 -s 0 -d 5 -p tcp -e 1040 -c 0 -i 43 -a 0 -x {0.0 1.0 10 ------- null}
r -t 0.693272 -s 5 -d 1 -p ack -e 40 -c 1 -i 37 -a 1 -x {2.0 1.1 5 ------- null}
h -t 0.693272 -s 1 -d 5 -p tcp -e 1040 -c 1 -i 44 -a 1 -x {1.1 2.0 9 ------- null}
h -t 0.693272 -s 1 -d 5 -p tcp -e 1040 -c 1 -i 45 -a 1 -x {1.1 2.0 10 ------- null}
r -t 0.693272 -s 5 -d 2 -p ack -e 40 -c 2 -i 38 -a 2 -x {3.0 2.1 5 ------- null}
h -t 0.693272 -s 2 -d 5 -p tcp -e 1040 -c 2 -i 46 -a 2 -x {2.1 3.0 9 ------- null}
h -t 0.693272 -s 2 -d 5 -p tcp -e 1040 -c 2 -i 47 -a 2 -x {2.1 3.0 10 ------- null}
+ -t 0.713276 -s 1 -d 5 -p ack -e 40 -c 0 -i 39 -a 0 -x {1.0 0.0 7 ------- null}
- -t 0.713276 -s 1 -d 5 -p ack -e 40 -c 0 -i 39 -a 0 -x {1.0 0.0 7 ------- null}
h -t 0.713276 -s 1 -d 5 -p ack -e 40 -c 0 -i 39 -a 0 -x {1.0 0.0 -1 ------- null}
+ -t 0.713276 -s 2 -d 5 -p ack -e 40 -c 1 -i 40 -a 1 -x {2.0 1.1 7 ------- null}
- -t 0.713276 -s 2 -d 5 -p ack -e 40 -c 1 -i 40 -a 1 -x {2.0 1.1 7 ------- null}
h -t 0.713276 -s 2 -d 5 -p ack -e 40 -c 1 -i 40 -a 1 -x {2.0 1.1 -1 ------- null}
+ -t 0.713276 -s 3 -d 5 -p ack -e 40 -c 2 -i 41 -a 2 -x {3.0 2.1 7 ------- null}
- -t 0.713276 -s 3 -d 5 -p ack -e 40 -c 2 -i 41 -a 2 -x {3.0 2.1 7 ------- null}
h -t 0.713276 -s 3 -d 5 -p ack -e 40 -c 2 -i 41 -a 2 -x {3.0 2.1 -1 ------- null}
d -t 0.71328 -s 4 -d 5 -p ack -e 40 -c 0 -i 39 -a 0 -x {1.0 0.0 7 ------- null}
d -t 0.71328 -s 3 -d 5 -p ack -e 40 -c 0 -i 39 -a 0 -x {1.0 0.0 7 ------- null}
d -t 0.71328 -s 2 -d 5 -p ack -e 40 -c 0 -i 39 -a 0 -x {1.0 0.0 7 ------- null}
d -t 0.71328 -s 4 -d 5 -p ack -e 40 -c 1 -i 40 -a 1 -x {2.0 1.1 7 ------- null}
d -t 0.71328 -s 3 -d 5 -p ack -e 40 -c 1 -i 40 -a 1 -x {2.0 1.1 7 ------- null}
d -t 0.71328 -s 0 -d 5 -p ack -e 40 -c 1 -i 40 -a 1 -x {2.0 1.1 7 ------- null}
d -t 0.71328 -s 4 -d 5 -p ack -e 40 -c 2 -i 41 -a 2 -x {3.0 2.1 7 ------- null}
d -t 0.71328 -s 1 -d 5 -p ack -e 40 -c 2 -i 41 -a 2 -x {3.0 2.1 7 ------- null}
d -t 0.71328 -s 0 -d 5 -p ack -e 40 -c 2 -i 41 -a 2 -x {3.0 2.1 7 ------- null}
+ -t 0.733272 -s 0 -d 5 -p tcp -e 1040 -c 0 -i 42 -a 0 -x {0.0 1.0 9 ------- null}
- -t 0.733272 -s 0 -d 5 -p tcp -e 1040 -c 0 -i 42 -a 0 -x {0.0 1.0 9 ------- null}
h -t 0.733272 -s 0 -d 5 -p tcp -e 1040 -c 0 -i 42 -a 0 -x {0.0 1.0 -1 ------- null}
+ -t 0.733272 -s 0 -d 5 -p tcp -e 1040 -c 0 -i 43 -a 0 -x {0.0 1.0 10 ------- null}
+ -t 0.733272 -s 1 -d 5 -p tcp -e 1040 -c 1 -i 44 -a 1 -x {1.1 2.0 9 ------- null}
- -t 0.733272 -s 1 -d 5 -p tcp -e 1040 -c 1 -i 44 -a 1 -x {1.1 2.0 9 ------- null}
h -t 0.733272 -s 1 -d 5 -p tcp -e 1040 -c 1 -i 44 -a 1 -x {1.1 2.0 -1 ------- null}
+ -t 0.733272 -s 1 -d 5 -p tcp -e 1040 -c 1 -i 45 -a 1 -x {1.1 2.0 10 ------- null}
+ -t 0.733272 -s 2 -d 5 -p tcp -e 1040 -c 2 -i 46 -a 2 -x {2.1 3.0 9 ------- null}
- -t 0.733272 -s 2 -d 5 -p tcp -e 1040 -c 2 -i 46 -a 2 -x {2.1 3.0 9 ------- null}
h -t 0.733272 -s 2 -d 5 -p tcp -e 1040 -c 2 -i 46 -a 2 -x {2.1 3.0 -1 ------- null}
+ -t 0.733272 -s 2 -d 5 -p tcp -e 1040 -c 2 -i 47 -a 2 -x {2.1 3.0 10 ------- null}
d -t 0.733276 -s 4 -d 5 -p tcp -e 1040 -c 0 -i 42 -a 0 -x {0.0 1.0 9 ------- null}
d -t 0.733276 -s 3 -d 5 -p tcp -e 1040 -c 0 -i 42 -a 0 -x {0.0 1.0 9 ------- null}
d -t 0.733276 -s 2 -d 5 -p tcp -e 1040 -c 0 -i 42 -a 0 -x {0.0 1.0 9 ------- null}
d -t 0.733276 -s 4 -d 5 -p tcp -e 1040 -c 1 -i 44 -a 1 -x {1.1 2.0 9 ------- null}
d -t 0.733276 -s 3 -d 5 -p tcp -e 1040 -c 1 -i 44 -a 1 -x {1.1 2.0 9 ------- null}